file 39315 1384681821                                           
version 2
run Wsn-0-20131117-16:50:07-3017
attr configname Wsn
attr datetime 20131117-16:50:07
attr experiment Wsn
attr inifile omnetpp.ini
attr iterationvars ""
attr iterationvars2 $repetition=0
attr measurement ""
attr network trackingwsn.Wsn
attr processid 3017
attr repetition 0
attr replication #0
attr resultdir results
attr runnumber 0
attr seedset 0

vector 0  Wsn.target[0].mobility  id2_x  ETV
vector 1  Wsn.target[0].mobility  id2_y  ETV
vector 2  Wsn.target[1].mobility  id3_x  ETV
vector 3  Wsn.target[1].mobility  id3_y  ETV
vector 808  Wsn.bs.app  tracked_tid3_x  ETV
vector 809  Wsn.bs.app  tracked_tid3_y  ETV
vector 806  Wsn.bs.app  tracked_tid2_x  ETV
vector 807  Wsn.bs.app  tracked_tid2_y  ETV
0	715 5915 0 195820 0 77.75 225 -31.666666666667 406 39414.333333333 10623197.222222
1	6630 5522 0 195820 0 77.75 225 55 177 26039 3224323.2222222
2	12152 5709 0 195821 0 77.75 225 -28.666666666667 422 42569.333333333 11889577.111111
3	17861 5707 0 195821 0 77.75 225 51.333333333333 238.66666666667 30579 4947237.2222222
806	23568 4027 40797 193799 27.373966087533 76.652805064038 95 -13.091442576833 392.31248501576 18335.774967687 4668911.862536
807	27595 4021 40797 193799 27.373966087533 76.652805064038 95 68.805406326389 175.8783765768 11218.006263586 1395751.6578444
808	31616 3849 34676 190549 24.140788751812 75.264210218726 91 -26.130925365014 401.53788226029 17571.111463741 4702728.7178118
809	35465 3850 34676 190549 24.140788751812 75.264210218726 91 20.160817935758 242.2389782703 12322.613858287 1966208.0219751
